   * xtb version 6.6.1 (8d0f1dd) compiled by 'conda@1efc2f54142f' on 2023-08-01
          program call               : xtb crest_conformers.xyz --gfn2 --opt --alpb water --ceasefiles

   ID    Z sym.   atoms
    1    8 O      1
    2    1 H      2

      * Solvation model:               ALPB
        Solvent                        water
        Solvent mass                       1.8000E+01 g/mol
          :  Hamiltonian                  GFN2-xTB          :
 * total energy  :    -4.4382373 Eh     change        0.0000000E+00 Eh
 * total energy  :    -4.4382373 Eh     change       -0.3631526E-07 Eh
   *** GEOMETRY OPTIMIZATION CONVERGED AFTER 2 ITERATIONS ***

 final structure:
================
2
 xtb: 6.6.1 (8d0f1dd)
O            0.11368148223621       -0.00000000000001        0.00000000000001
H           -0.86036516283621       -0.00000000009999        0.00000000009999

          :  Hamiltonian                  GFN2-xTB          :
         :: total energy              -4.438237328376 Eh    ::
         :: gradient norm              0.000011581255 Eh/a0 ::
         :: HOMO-LUMO gap             17.429023542566 eV    ::
         :: SCC energy                -4.452895129004 Eh    ::
         :: -> dispersion             -0.000044470234 Eh    ::
         :: -> Gsolv                  -0.014982535132 Eh    ::
         :: repulsion energy           0.014657800627 Eh    ::

    * Orbital Energies and Occupations

         #    Occupation            Energy/Eh            Energy/eV
      -------------------------------------------------------------
         1        2.0000           -0.6977880             -18.9878
         2        2.0000           -0.5673415             -15.4381
         3        1.5000           -0.4906032             -13.3500
         4        1.5000           -0.4906032             -13.3500 (HOMO)
         5                          0.1499016               4.0790 (LUMO)
      -------------------------------------------------------------
                  HL-Gap            0.6405048 Eh           17.4290 eV

     #   Z          covCN         q      C6AA      α(0)
     1   8 O        0.804    -0.449    22.718     6.389
     2   1 H        0.804     0.449     0.404     0.998

molecular dipole:
                 x           y           z       tot (Debye)
 q only:       -0.827      -0.000       0.000
   full:       -0.962      -0.000       0.000       2.445

           -------------------------------------------------
          | TOTAL ENERGY               -4.438237328376 Eh   |
          | GRADIENT NORM               0.000011581255 Eh/α |
          | HOMO-LUMO GAP              17.429023542566 eV   |
           -------------------------------------------------

 * finished run on 2024/10/11 at 14:02:03.770
